 Gaussian 16, Revision A.03,
 Gaussian 16:  ES64L-G16RevA.03 25-Dec-2016

 -----------------------------------------
 #p HF/6-31+G(d) OPT FREQ pop=full Gfprint
 -----------------------------------------

 -----------
 get orbital
 -----------
 Symbolic Z-matrix:
 Charge =  0 Multiplicity = 1

 SCF Done:  E(RHF) =  -187.496257296     A.U. after    9 cycles
 SCF Done:  E(RHF) =  -187.624404934     A.U. after   10 cycles
 SCF Done:  E(RHF) =  -187.638748288     A.U. after    9 cycles
 SCF Done:  E(RHF) =  -187.638786758     A.U. after    8 cycles
 Optimization completed.
    -- Stationary point found.
 Normal termination of Gaussian 16 at Thu Mar  5 22:18:56 2020.

 ------------------------------------------------------------------
 #P Geom=AllCheck Guess=TCheck SCRF=Check GenChk RHF/6-31+G(d) Freq
 ------------------------------------------------------------------

 Structure from the checkpoint file:  "CO2_linear_HF.chk"
 -----------
 get orbital
 -----------
 Charge =  0 Multiplicity = 1

                         Standard orientation:
 ---------------------------------------------------------------------
 Center     Atomic      Atomic             Coordinates (Angstroms)
 Number     Number       Type             X           Y           Z
 ---------------------------------------------------------------------
      1          8           0        0.000000    0.000000    1.143349
      2          6           0        0.000000    0.000000    0.000000
      3          8           0        0.000000    0.000000   -1.143349
 ---------------------------------------------------------------------

 SCF Done:  E(RHF) =  -187.638786758     A.U. after    1 cycles

 The electronic state is 1-SGG.
 Alpha  occ. eigenvalues --  -20.66724 -20.66721 -11.46905  -1.55030  -1.49540
 Alpha  occ. eigenvalues --   -0.79977  -0.74668  -0.72620  -0.72620  -0.54743
 Alpha  occ. eigenvalues --   -0.54743
 Alpha virt. eigenvalues --    0.05692   0.09536   0.09536   0.10145   0.22125
 Alpha virt. eigenvalues --    0.22125   0.24447   0.28061   0.28061   0.28432
 Alpha virt. eigenvalues --    0.32554   0.35114   0.35114   0.39090   0.53439

 Mulliken charges:
               1
     1  O   -0.427477
     2  C    0.854953
     3  O   -0.427477
 Sum of Mulliken charges =  -0.00000

 Dipole moment (field-independent basis, Debye):
    X=             -0.0000    Y=             -0.0000    Z=              0.0000  Tot=              0.0000
 Quadrupole moment (field-independent basis, Debye-Ang):
   XX=            -14.7229   YY=            -14.7229   ZZ=            -20.3346
   XY=              0.0000   XZ=              0.0000   YZ=              0.0000

  Exact polarizability:   8.352   0.000   8.352  -0.000   0.000  23.016
 Approx polarizability:   7.572  -0.000   7.572  -0.000  -0.000  22.804

                      1                      2                      3
                     PIU                    PIU                    SGG
 Frequencies --    749.4794               749.4794              1510.8755
 Red. masses --     12.8774                12.8774                15.9949
 Frc consts  --      4.2618                 4.2618                21.5124
 IR Inten    --     69.2121                69.2121                 0.0000
 Raman Activ --      0.0000                 0.0000                15.0073

                      4
                     SGU
 Frequencies --   2564.0973
 Red. masses --     12.8774
 Frc consts  --     49.8823
 IR Inten    --   1102.4389
 Raman Activ --      0.0000

 - Thermochemistry -
 -------------------
 Temperature   298.150 Kelvin.  Pressure   1.00000 Atm.
 Atom     1 has atomic number  8 and mass  15.99491

 Molecular mass:    43.98983 amu.
 Principal axes and moments of inertia in atomic units:
                           1         2         3
     Eigenvalues --     0.00000 149.33698 149.33698
           X           -0.00000   1.00000  -0.00000
           Y            0.00000   0.00000   1.00000
           Z            1.00000   0.00000  -0.00000
 This molecule is a prolate symmetric top.
 Rotational symmetry number  2.
 Rotational temperature (Kelvin)      0.57999
 Rotational constant (GHZ):          12.085026
 Zero-point vibrational energy      33339.5 (Joules/Mol)
                                    7.96834 (Kcal/Mol)
 Vibrational temperatures:   1078.33  1078.33  2173.81  3689.16
          (Kelvin)

 Zero-point correction=                           0.012698 (Hartree/Particle)
 Thermal correction to Energy=                    0.015252
 Thermal correction to Enthalpy=                  0.016196
 Thermal correction to Gibbs Free Energy=        -0.007941
 Sum of electronic and zero-point Energies=           -187.626088
 Sum of electronic and thermal Energies=              -187.623535
 Sum of electronic and thermal Enthalpies=            -187.622590
 Sum of electronic and thermal Free Energies=         -187.646728

                     E (Thermal)             CV                S
                      KCal/Mol        Cal/Mol-Kelvin    Cal/Mol-Kelvin
 Total                    9.571              6.517             50.801
 Electronic               0.000              0.000              0.000
 Translational            0.889              2.981             37.270
 Rotational               0.592              1.987             13.015
 Vibrational              8.090              1.549              0.517

 Optimization completed.
    -- Stationary point found.
 Normal termination of Gaussian 16 at Thu Mar  5 22:19:04 2020.
