 Gaussian 16, Revision A.03,
 Gaussian 16:  ES64L-G16RevA.03 25-Dec-2016

 -----------------------------------------------
 # UHF/6-31G(d) OPT Freq GFPrint Pop=Full Nosymm
 -----------------------------------------------

 -----------------
 C1, Pilling 2011.
 -----------------
 Symbolic Z-matrix:
 Charge =  0 Multiplicity = 1

 SCF Done:  E(UHF) =  -282.822652518     A.U. after   13 cycles
 SCF Done:  E(UHF) =  -282.822981924     A.U. after   12 cycles
 SCF Done:  E(UHF) =  -282.822997375     A.U. after   12 cycles
 SCF Done:  E(UHF) =  -282.824176881     A.U. after   13 cycles
 SCF Done:  E(UHF) =  -282.825717054     A.U. after   13 cycles
 SCF Done:  E(UHF) =  -282.827070916     A.U. after   15 cycles
 SCF Done:  E(UHF) =  -282.827292448     A.U. after   12 cycles
 SCF Done:  E(UHF) =  -282.827794580     A.U. after   12 cycles
 SCF Done:  E(UHF) =  -282.827803749     A.U. after   10 cycles
 SCF Done:  E(UHF) =  -282.827804942     A.U. after   10 cycles
 SCF Done:  E(UHF) =  -282.827805244     A.U. after    9 cycles
 SCF Done:  E(UHF) =  -282.827805424     A.U. after   10 cycles
 Optimization completed.
    -- Stationary point found.
 Normal termination of Gaussian 16 at Fri Mar  6 02:48:36 2020.

 -----------------------------------------------------------------
 #N Geom=AllCheck Guess=TCheck SCRF=Check GenChk UHF/6-31G(d) Freq
 -----------------------------------------------------------------

 Structure from the checkpoint file:  "glycine_OPT.chk"
 -----------------
 C1, Pilling 2011.
 -----------------
 Charge =  0 Multiplicity = 1

                          Input orientation:
 ---------------------------------------------------------------------
 Center     Atomic      Atomic             Coordinates (Angstroms)
 Number     Number       Type             X           Y           Z
 ---------------------------------------------------------------------
      1          6           0       -0.052778   -0.094509   -0.061987
      2          8           0       -0.151075   -0.469783    1.059768
      3          8           0        1.116536    0.172039   -0.633656
      4          1           0        1.805037    0.005147    0.002954
      5          6           0       -1.201519    0.077003   -1.024276
      6          1           0       -1.015847    0.954182   -1.631247
      7          1           0       -1.157346   -0.784559   -1.695252
      8          7           0       -2.440944    0.223430   -0.299994
      9          1           0       -3.226987    0.123707   -0.910162
     10          1           0       -2.510482   -0.463495    0.424201
 ---------------------------------------------------------------------

 SCF Done:  E(UHF) =  -282.827805424     A.U. after    1 cycles

 Alpha  occ. eigenvalues --  -20.62043 -20.55789 -15.54639 -11.38697 -11.27159
 Alpha  occ. eigenvalues --   -1.48238  -1.37399  -1.19501  -0.98080  -0.82033
 Alpha  occ. eigenvalues --   -0.72140  -0.70631  -0.67080  -0.63353  -0.60330
 Alpha  occ. eigenvalues --   -0.57468  -0.56131  -0.48506  -0.45378  -0.39741
 Alpha virt. eigenvalues --    0.19055   0.22846   0.23485   0.28145   0.31839
 Alpha virt. eigenvalues --    0.32927   0.40750   0.44804   0.49285   0.54346
 Alpha virt. eigenvalues --    0.75276   0.77089   0.79017   0.83871   0.88721

  Beta  occ. eigenvalues --  -20.62043 -20.55789 -15.54639 -11.38697 -11.27159
  Beta  occ. eigenvalues --   -1.48238  -1.37399  -1.19501  -0.98080  -0.82033
  Beta  occ. eigenvalues --   -0.72140  -0.70631  -0.67080  -0.63353  -0.60330
  Beta  occ. eigenvalues --   -0.57468  -0.56131  -0.48506  -0.45378  -0.39741
  Beta virt. eigenvalues --    0.19055   0.22846   0.23485   0.28145   0.31839
  Beta virt. eigenvalues --    0.32927   0.40750   0.44804   0.49285   0.54346
  Beta virt. eigenvalues --    0.75276   0.77089   0.79017   0.83871   0.88721

 Mulliken charges and spin densities:
               1          2
     1  C    0.752167   0.000000
     2  O   -0.557524   0.000000
     3  O   -0.698402   0.000000
     4  H    0.467829   0.000000
     5  C   -0.213509   0.000000
     6  H    0.206885   0.000000
     7  H    0.178570   0.000000
     8  N   -0.843396   0.000000
     9  H    0.343879   0.000000
    10  H    0.363501   0.000000
 Sum of Mulliken charges =   0.00000   0.00000

 Dipole moment (field-independent basis, Debye):
    X=              0.2367    Y=             -0.9035    Z=             -2.1046  Tot=              2.3025
 Quadrupole moment (field-independent basis, Debye-Ang):
   XX=            -23.0874   YY=            -30.3445   ZZ=            -31.3596
   XY=              3.0061   XZ=              4.7906   YZ=              0.9288

  Exact polarizability:  34.838   0.431  22.476  -0.073  -3.435  32.560
 Approx polarizability:  27.525   0.553  21.814  -1.090  -3.263  30.640

                      1                      2                      3
                      A                      A                      A
 Frequencies --     97.2792               223.2861               308.8532
 Red. masses --      2.7119                 1.1312                 3.7975
 Frc consts  --      0.0151                 0.0332                 0.2134
 IR Inten    --      3.0368                60.7550                 6.2399
 Raman Activ --      0.0950                 1.7419                 0.2510

                      4                      5                      6
                      A                      A                      A
 Frequencies --    499.4409               569.1753               679.3514
 Red. masses --      4.2655                 1.6637                 2.3677
 Frc consts  --      0.6269                 0.3176                 0.6438
 IR Inten    --     12.8347                32.7662                70.1989
 Raman Activ --      1.5425                 3.5569                 2.4878

                      7                      8                      9
                      A                      A                      A
 Frequencies --    737.3683               917.5952               935.7064
 Red. masses --      2.1285                 2.5560                 1.3218
 Frc consts  --      0.6819                 1.2680                 0.6818
 IR Inten    --    113.3916                33.6294               194.9496
 Raman Activ --      1.2715                 6.1657                 5.7640

                     10                     11                     12
                      A                      A                      A
 Frequencies --   1143.7257              1192.6285              1277.9922
 Red. masses --      2.1889                 2.2130                 1.6175
 Frc consts  --      1.6870                 1.8545                 1.5565
 IR Inten    --      9.3924                16.2648               172.9942
 Raman Activ --      1.6518                 6.2207                 1.4197

                     13                     14                     15
                      A                      A                      A
 Frequencies --   1347.5926              1405.0403              1470.4933
 Red. masses --      1.6547                 1.2524                 1.7928
 Frc consts  --      1.7705                 1.4567                 2.2841
 IR Inten    --    162.5054                 2.2997                47.9107
 Raman Activ --      6.4087                 8.7132                 1.8439

                     16                     17                     18
                      A                      A                      A
 Frequencies --   1618.9954              1649.0737              1823.1129
 Red. masses --      1.9025                 1.1083                 1.1047
 Frc consts  --      2.9380                 1.7758                 2.1632
 IR Inten    --     28.5748                11.1094                61.3090
 Raman Activ --      2.2697                12.0327                 5.3112

                     19                     20                     21
                      A                      A                      A
 Frequencies --   2040.6391              3145.2163              3274.7186
 Red. masses --      9.4078                 1.0742                 1.0888
 Frc consts  --     23.0820                 6.2610                 6.8792
 IR Inten    --    379.7471                56.0628                22.4528
 Raman Activ --      4.6626               104.8450                79.2896

                     22                     23                     24
                      A                      A                      A
 Frequencies --   3753.2207              3843.9132              4053.6081
 Red. masses --      1.0504                 1.0951                 1.0652
 Frc consts  --      8.7176                 9.5334                10.3122
 IR Inten    --      5.1384                 8.5242               116.4977
 Raman Activ --     88.0877                55.2349                76.6155

 - Thermochemistry -
 -------------------
 Temperature   298.150 Kelvin.  Pressure   1.00000 Atm.
 Atom     1 has atomic number  6 and mass  12.00000

 Molecular mass:    75.03203 amu.
 Principal axes and moments of inertia in atomic units:
                           1         2         3
     Eigenvalues --   169.28401 451.23166 601.61552
           X            0.99142  -0.12972   0.01588
           Y           -0.05357  -0.29251   0.95476
           Z            0.11921   0.94742   0.29695
 This molecule is an asymmetric top.
 Rotational symmetry number  1.
 Rotational temperatures (Kelvin)      0.51165     0.19195     0.14397
 Rotational constants (GHZ):          10.66103     3.99959     2.99982
 Zero-point vibrational energy     227338.5 (Joules/Mol)
                                   54.33520 (Kcal/Mol)
 Warning -- explicit consideration of   5 degrees of freedom as
           vibrations may cause significant error
 Vibrational temperatures:    139.96   321.26   444.37   718.58   818.92
          (Kelvin)            977.44  1060.91  1320.21  1346.27  1645.57
                             1715.93  1838.75  1938.89  2021.54  2115.71
                             2329.37  2372.65  2623.05  2936.02  4525.26
                             4711.59  5400.05  5530.53  5832.24

 Zero-point correction=                           0.086589 (Hartree/Particle)
 Thermal correction to Energy=                    0.091895
 Thermal correction to Enthalpy=                  0.092839
 Thermal correction to Gibbs Free Energy=         0.058054
 Sum of electronic and zero-point Energies=           -282.741217
 Sum of electronic and thermal Energies=              -282.735910
 Sum of electronic and thermal Enthalpies=            -282.734966
 Sum of electronic and thermal Free Energies=         -282.769752

                     E (Thermal)             CV                S
                      KCal/Mol        Cal/Mol-Kelvin    Cal/Mol-Kelvin
 Total                   57.665             17.336             73.212
 Electronic               0.000              0.000              0.000
 Translational            0.889              2.981             38.862
 Rotational               0.889              2.981             25.333
 Vibrational             55.888             11.375              9.017
 Vibration     1          0.603              1.951              3.508
 Vibration     2          0.649              1.806              1.932
 Vibration     3          0.698              1.657              1.368
 Vibration     4          0.855              1.251              0.660
 Vibration     5          0.925              1.098              0.506

 Optimization completed.
    -- Stationary point found.
 Normal termination of Gaussian 16 at Fri Mar  6 02:48:49 2020.
