 Gaussian 16, Revision A.03,
 Gaussian 16:  ES64L-G16RevA.03 25-Dec-2016

 ---------------------
 # UHF/6-31G(d) Nosymm
 ---------------------

 ------------
 ground state
 ------------
 Symbolic Z-matrix:
 Charge =  0 Multiplicity = 1

                          Input orientation:
 ---------------------------------------------------------------------
 Center     Atomic      Atomic             Coordinates (Angstroms)
 Number     Number       Type             X           Y           Z
 ---------------------------------------------------------------------
      1          6           0        0.000000    0.000000    0.000000
      2          8           0        0.000000    0.000000    1.186941
      3          8           0        1.115684    0.000000   -0.721384
      4          1           0        1.857481   -0.003788   -0.123988
      5          6           0       -2.449409   -0.127195   -1.727488
      6          1           0       -2.294407    0.503473   -2.593839
      7          1           0       -2.501399   -1.155903   -2.092874
      8          7           0       -3.605520    0.316362   -0.986635
      9          1           0       -4.450909    0.081839   -1.466667
     10          1           0       -3.626897   -0.104815   -0.079268
 ---------------------------------------------------------------------

 SCF Done:  E(UHF) =  -282.606512194     A.U. after   15 cycles

 Alpha  occ. eigenvalues --  -20.61598 -20.56547 -15.57615 -11.39025 -11.34962
 Alpha  occ. eigenvalues --   -1.46725  -1.36340  -1.21227  -0.90511  -0.83034
 Alpha  occ. eigenvalues --   -0.69641  -0.68726  -0.65176  -0.64365  -0.61956
 Alpha  occ. eigenvalues --   -0.60207  -0.51443  -0.48197  -0.42426  -0.29185
 Alpha virt. eigenvalues --    0.00628   0.21090   0.21834   0.25137   0.26483
 Alpha virt. eigenvalues --    0.30088   0.30722   0.40351   0.49098   0.51795
 Alpha virt. eigenvalues --    0.70206   0.72864   0.73914   0.80645   0.82598

  Beta  occ. eigenvalues --  -20.61598 -20.56547 -15.57615 -11.39025 -11.34962
  Beta  occ. eigenvalues --   -1.46725  -1.36340  -1.21227  -0.90511  -0.83034
  Beta  occ. eigenvalues --   -0.69641  -0.68726  -0.65176  -0.64365  -0.61956
  Beta  occ. eigenvalues --   -0.60207  -0.51443  -0.48197  -0.42426  -0.29185
  Beta virt. eigenvalues --    0.00628   0.21090   0.21834   0.25137   0.26483
  Beta virt. eigenvalues --    0.30088   0.30722   0.40351   0.49098   0.51795
  Beta virt. eigenvalues --    0.70206   0.72864   0.73914   0.80645   0.82598

 Mulliken charges and spin densities:
               1          2
     1  C    0.513653   0.000000
     2  O   -0.507890   0.000000
     3  O   -0.644964   0.000000
     4  H    0.445773   0.000000
     5  C   -0.104490   0.000000
     6  H    0.208313   0.000000
     7  H    0.186519   0.000000
     8  N   -0.833161   0.000000
     9  H    0.362027   0.000000
    10  H    0.374221   0.000000
 Sum of Mulliken charges =  -0.00000   0.00000

 Dipole moment (field-independent basis, Debye):
    X=             -1.8378    Y=             -1.6202    Z=             -2.5386  Tot=              3.5280
 Quadrupole moment (field-independent basis, Debye-Ang):
   XX=            -12.7388   YY=            -31.0489   ZZ=            -28.8246
   XY=              5.9627   XZ=              8.1705   YZ=              1.3133

 Normal termination of Gaussian 16 at Sat Mar 14 19:35:10 2020.
